<VTKFile type="ImageData" version="1.0" byte_order="LittleEndian" header_type="UInt64">
  <ImageData WholeExtent="0 49 0 24 0 1" Origin="0 0 0" Spacing="0.20408163265 0.20833333333 0">
  <Piece Extent="0 49 0 24 0 1">
    <PointData Scalars="Result_Y">
      <DataArray type="Float64" Name="ImageScalars" format="ascii" RangeMin="-5.3502118437e+306" RangeMax="1.0063508604e+306">
        0 0 0 0 0 0
        0 0 0 0 0 0
        0 0 0 0 0 0
        0 0 0 0 0 0
        0 0 0 0 0 0
        0 0 0 0 0 0
        0 0 0 0 0 0
        0 0 0 0 0 0
        0 5.1488031543e-246 0 0 0 0
        0 0 0 0 0 0
        0 0 0 0 0 0
        0 0 0 0 0 0
        0 0 0 0 0 0
        0 0 0 0 0 0
        0 0 0 0 0 0
        0 0 0 0 0 0
        0 0 0 8.8686526048e-241 0 0
        0 0 0 0 0 0
        0 0 0 0 0 0
        0 0 0 0 0 0
        0 0 0 0 0 0
        0 0 0 0 0 0
        0 0 0 0 0 0
        0 0 0 0 0 0
        0 0 0 0 0 8.0635840193e-313
        0 0 0 0 0 0
        0 0 0 0 0 0
        0 0 0 0 0 0
        0 0 0 0 0 0
        0 0 0 0 0 0
        0 0 0 0 0 0
        0 0 0 0 0 0
        0 0 0 0 0 0
        0 -1.1888232874e-42 0 0 0 0
        0 0 0 0 0 0
        0 0 0 0 0 0
        0 0 0 0 0 0
        0 0 0 0 0 0
        0 0 0 0 0 0
        0 0 0 0 0 0
        0 0 0 0 0 0
        0 0 0 -4.508575845e-120 0 0
        0 0 0 0 0 0
        0 0 0 0 0 0
        0 0 0 0 0 0
        0 0 0 0 0 0
        0 0 0 0 0 0
        0 0 0 0 0 0
        0 0 0 0 0 0
        0 0 0 0 0 1.2823473838e-319
        0 0 0 0 0 0
        0 0 0 0 0 0
        0 0 0 0 0 0
        0 0 0 0 0 0
        0 0 0 0 0 0
        0 0 0 0 0 0
        0 0 0 0 0 0
        0 0 0 0 0 0
        0 -6.381004264e-308 0 0 0 0
        0 0 0 0 0 0
        0 0 0 0 0 0
        0 0 0 0 0 0
        0 0 0 0 0 0
        0 0 0 0 0 0
        0 0 0 0 0 0
        0 0 0 0 0 0
        0 0 0 7.5697007608e+173 0 0
        0 0 0 0 0 0
        0 0 0 0 0 0
        0 0 0 0 0 0
        0 0 0 0 0 0
        0 0 0 0 0 0
        0 0 0 0 0 0
        0 0 0 0 0 0
        0 0 0 0 0 1.4572819444e+102
        0 0 0 0 0 0
        0 0 0 0 0 0
        0 0 0 0 0 0
        0 0 0 0 0 0
        0 0 0 0 0 0
        0 0 0 0 0 0
        0 0 0 0 0 0
        0 0 0 0 0 0
        0 4.1318930543e-20 0 0 0 0
        0 0 0 0 0 0
        0 0 0 0 0 0
        0 0 0 0 0 0
        0 0 0 0 0 0
        0 0 0 0 0 0
        0 0 0 0 0 0
        0 0 0 0 0 0
        0 0 0 4.2423583997e+237 0 0
        0 0 0 0 0 0
        0 0 0 0 0 0
        0 0 0 0 0 0
        0 0 0 0 0 0
        0 0 0 0 0 0
        0 0 0 0 0 0
        0 0 0 0 0 0
        0 0 0 0 0 6.4680948971e+170
        0 0 0 0 0 0
        0 0 0 0 0 0
        0 0 0 0 0 0
        0 0 0 0 0 0
        0 0 0 0 0 0
        0 0 0 0 0 0
        0 0 0 0 0 0
        0 0 0 0 0 0
        0 0 0 0 0 0
        0 0 0 0 0 0
        0 0 0 0 0 0
        0 0 0 0 0 0
        0 0 0 0 0 0
        0 0 0 0 0 0
        0 0 0 0 0 0
        0 0 0 0 0 0
        0 0 0 -1.5830345362e+223 0 0
        0 0 0 0 0 0
        0 0 0 0 0 0
        0 0 0 0 0 0
        0 0 0 0 0 0
        0 0 0 0 0 0
        0 0 0 0 0 0
        0 0 0 0 0 0
        0 0 0 0 0 5.7920339399e+107
        0 0 0 0 0 0
        0 0 0 0 0 0
        0 0 0 0 0 0
        0 0 0 0 0 0
        0 0 0 0 0 0
        0 0 0 0 0 0
        0 0 0 0 0 0
        0 0 0 0 0 0
        0 6.3151364537e+233 0 0 0 0
        0 0 0 0 0 0
        0 0 0 0 0 0
        0 0 0 0 0 0
        0 0 0 0 0 0
        0 0 0 0 0 0
        0 0 0 0 0 0
        0 0 0 0 0 0
        0 0 0 -4.3485408178e-21 0 0
        0 0 0 0 0 0
        0 0 0 0 0 0
        0 0 0 0 0 0
        0 0 0 0 0 0
        0 0 0 0 0 0
        0 0 0 0 0 0
        0 0 0 0 0 0
        0 0 0 0 0 2.7139873271e-158
        0 0 0 0 0 0
        0 0 0 0 0 0
        0 0 0 0 0 0
        0 0 0 0 0 0
        0 0 0 0 0 0
        0 0 0 0 0 0
        0 0 0 0 0 0
        0 0 0 0 0 0
        0 4.2214559672e-317 0 0 0 0
        0 0 0 0 0 0
        0 0 0 0 0 0
        0 0 0 0 0 0
        0 0 0 0 0 0
        0 0 0 0 0 0
        0 0 0 0 0 0
        0 0 0 0 0 0
        0 0 0 -1.8976349228e-110 0 0
        0 0 0 0 0 0
        0 0 0 0 0 0
        0 0 0 0 0 0
        0 0 0 0 0 0
        0 0 0 0 0 0
        0 0 0 0 0 0
        0 0 0 0 0 0
        0 0 0 0 0 2.3834498692e+180
        0 0 0 0 0 0
        0 0 0 0 0 0
        0 0 0 0 0 0
        0 0 0 0 0 0
        0 0 0 0 0 0
        0 0 0 0 0 0
        0 0 0 0 0 0
        0 0 0 0 0 0
        0 8.0303713253e+165 0 0 0 0
        0 0 0 0 0 0
        0 0 0 0 0 0
        0 0 0 0 0 0
        0 0 0 0 0 0
        0 0 0 0 0 0
        0 0 0 0 0 0
        0 0 0 0 0 0
        0 0 0 1.9961313263e+161 0 0
        0 0 0 0 0 0
        0 0 0 0 0 0
        0 0 0 0 0 0
        0 0 0 0 0 0
        0 0 0 0 0 0
        0 0 0 0 0 0
        0 0 0 0 0 0
        0 0 0 0 0 -3.8251324622e+34
        -2.5784394055e+154 -4.2088228483e-300 -2.6359365025e+283 3.5602345988e+40 -2.4348388756e+188 2.8666097708e-227
        8.0733523257e+230 1.1732128248e-302 1.564784808e-90 2.6405897704e+72 -7.2532914517e-158 -1.0674871227e-43
        -5.5093377794e+42 -6.0075641724e-280 5.137147393e+253 -3.909217795e+292 -2.9949168923e-297 -9.9458052594e-261
        8.2796916707e-308 8.3110322624e-252 -4.7622045471e+263 -4.8679932292e-10 1.1476933546e+69 2.7665736031e-312
        2.3834498692e+180 9.5327272917e-315 1.6268777237e+219 1.2026088635e+195 5.6817549272e-322 1.3368573498e-312
        8.0303713253e+165 5.323875565e-310 0 2.3834498692e+180 9.5327272917e-315 2.1751515645e+243
        1.49203088e+195 6.3238503482e-310 1.3792972656e-312 8.0303713253e+165 5.323875565e-310 0
        2.3834498692e+180 9.5327272917e-315 2.1751515645e+243 1.49203088e+195 1.285154033e+248 0
        5.9415882295e-313 2.3834498692e+180 9.5327272917e-315 2.7548954961e+214 3.2842524682e-317 7.6391848623e-313
        2.3834498692e+180 9.5327272917e-315 2.7548954961e+214 1.0661809892e+224 3.7380636215e-317 1.527836971e-312
        8.0303713253e+165 5.323875565e-310 0 2.3834498692e+180 9.5327272917e-315 2.7548954961e+214
        3.6326385239e+262 2.1934030159e-152 1.815286771e-306 7.002586122e-313 2.3834498692e+180 9.5327272917e-315
        8.4221870371e+252 1.4877303454e+195 0 7.4269852802e-313 2.3834498692e+180 9.5327272917e-315
        8.4221870371e+252 5.2674251129e+170 1.4468712438e-319 6.7903865461e-313 2.3834498692e+180 9.5327272917e-315
        1.3550429535e+248 1.7332562757e-306 6.3659874046e-313 2.3834498692e+180 9.5327272917e-315 7.1993841493e+252
        2.0679827045e-312 2.1135078079e-311 8.0303713253e+165 5.323875565e-310 0 9.0768441781e+223
        1.9772250577e+159 1.9013082288e-311 5.2923977766e-260 2.0173782476e+88 1.2882298307e-231 -nan
        8.2286537517e+44 7.5697007608e+173 1.2620817203e+122 1.0206768609e-202 1.3045249531e-309 -5.5673683297e-245
        -4.844665674e+29 -1.2607927734e-169 -1.1391251527e-94 -2.9343781667e-296 1.5245820246e-286 -2.0464621346e+280
        2.0197449623e-293 2.3011484064e-143 1.5907379236e-126 -5.7129464884e-241 -5.3502118437e+306 -6.2622013613e+298
        1.4820156702e-36 3.0811721478e-106 6.3167884364e+53 7.5858651132e-46 2.7252655777e-14 -1.9918079975e+182
        -2.264442866e+283 4.8358240567e-170 1.7265147715e+190 2.1029805144e-17 -3.5981151439e+59 -1.0338799619e+19
        2.0631886334e-102 -2.4717885872e+215 4.4177386254e+97 -1.6088203473e-82 -4.3716660076e+105 -15588222861
        -4.6773217178e+168 -2.6142497155e-158 2.6685317937e-37 6.0894090294e-06 2.4844120364e-104 1.8031870018e-34
        -4.004011956e-54 1.9707389516e+23 2.6255512475e+119 -2.1999012905e-105 -2.3462304519e-238 -2.2840752705e-248
        1.2368232384e-293 1.5546080231e-304 1.532626979e-40 1.0641357449e-249 7.07418138e+65 5.9616279837e-189
        -2.032375567e+186 3.4571906625e-116 7.6914164408e-91 2.1056655266e-289 -6.9661032363e-83 1.2524352767e-199
        6.3285220528e+301 3.1208307262e-286 -2.1362203055e-41 1.7873933549e+56 1.636185844e-308 2.6863304e-117
        -4.0726356728e-78 -1.5937603037e-154 7.2823073431e+47 2.2452526546e+124 -2.8743187158e+178 -4.4743089832e+172
        -1.2472938619e-26 -2.8503099863e-134 -1.0880093326e-122 8.707408898e+297 2.0476238821e-160 3.5615535426e+30
        2.5058466834e-176 2.8290173639e+43 -4.1732846891e-20 1.6234087803e+14 -1.2948929301e+300 -6.9694010357e+79
        6.5146097061e-108 1.3443168364e-270 -2.3363842012e+47 -3.1437161861e+85 -7.4023314964e-301 7.2775013909e-76
        1.0480976532e+263 -0.00021847705879 1.6361470515e+112 6.3142971868e+185 -5.555959117e-90 -3.3432271915e-273
        2.8798117844e+296 -4.9472851469e+142 1.8668811977e+148 -1.1913130957e-191 2.3355660187e+77 1.9925436661e-308
        -9.5287638686e-96 5.1124469641e+187 -2.4824083016e-101 -1.2872464448e+219 1.8572140737e-314 -3.1079027844e-297
        2.3834498692e+180 9.5327272917e-315 7.1993841493e+252 1.6933660387e-152 3.6806590671e+180 1.7565140607e+97
        3.2841259874e-317 1.3071494073e-311 9.0768441781e+223 1.9772250577e+159 1.147999723e-311 5.2923977766e-260
        2.0173782476e+88 1.2882298307e-231 -nan 8.2286537517e+44 7.5697007608e+173 1.2620817203e+122
        1.0206768609e-202 1.3045249531e-309 -5.5673683298e-245 -1.4670228014e-274 4.7735469147e-100 1.273443612e+15
        -1.0991720842e-302 6.2762241006e+253 -5.6027433852e-30 11574.216481 -8.4438324557e+294 -1.0042464018e+112
        2.0522916639e+267 -1.3170638037e-250 4.2423583997e+237 1.9381879019e-218 -4.4657638197e-54 1.6479757632e-40
        7.074183092e+193 3.1736951693e+154 7.0939604635e+285 4.5648648612e+67 7.3410382198e-88 1.8696488561e+56
        -4.3549879381e-249 -1.8726830583e-61 8.1716316369e-174 -9.3670592373e-45 1.8923643007e-212 2.5135693024e+87
        -1.0764337678e+166 -2.9056187983e+243 2.6445564867e+137 2.0317151938e-296 -1.7773885413e-244 -4.2597328753e-201
        -3.8251324622e+34 -2.5784394055e+154 -4.2088228483e-300 -2.6359365025e+283 3.5602345988e+40 -2.4348388756e+188
        2.8666097708e-227 8.0733523257e+230 1.1732128248e-302 1.564784808e-90 2.6405897704e+72 -7.2532914517e-158
        -1.0674871227e-43 -5.5093377794e+42 -6.0075641724e-280 5.137147393e+253 -3.909217795e+292 -2.9949168923e-297
        -9.9458052594e-261 8.2796916707e-308 8.3110322624e-252 -4.7622045471e+263 -4.8679932292e-10 1.1476933546e+69
        2.7665736031e-312 2.3834498692e+180 9.5327272917e-315 7.1993841493e+252 5.29862103e+180 9.0836720626e+223
        1.7263314396e-306 1.3792972652e-312 8.0303713253e+165 5.323875565e-310 0 2.3834498692e+180
        9.5327272917e-315 7.1993841493e+252 8.4472679396e+252 7.4922946257e+247 0 1.8567463174e-311
        8.0303713253e+165 5.323875565e-310 0 9.0768441781e+223 1.9772250577e+159 1.6721326833e-311
        5.2923977766e-260 2.0173782476e+88 1.2882298307e-231 -nan 8.2286537517e+44 7.5697007608e+173
        1.2620817203e+122 1.0206768609e-202 1.3045249531e-309 -5.5673683298e-245 -1.7978871009e-279 -5.4389350649e-220
        -2.2890367491e+125 5.0168100469e+136 -1.5972626925e+14 -1.2203864101e-280 1.4539122685e+98 -7.1829752243e-56
        -3.4674115134e-91 -1.6620567202e-246 1.5021632815e-292 1.8049142562e+140 3.721080507e-310 -1.081250416e-13
        -3.4755159695e+71 2.9265652242e+116 1.0014807716e+267 -2.6093964923e-96 5.1460086526e+292 8.9809478667e-246
        -1.1544399779e+265 -8.0190957996e-138 1.0103919031e+199 3.6215117876e-91 -1.9738992415e+201 -1507253123.6
        -1.0213061682e+155 -1.9737095201e-285 6.686824751e-279 2.7814924474e-250 6.9134485244e-159 1.7895274822e+24
        5.1763744104e-208 -4.6875246832e-115 4.2593213548e-107 4.4059541751e-127 -1.4757517567e-102 3.5045092753e+277
        1.1642203304e+99 794222701.34 -2.685652615e-112 9.0425742461e-201 -5.4315766194e-107 7.8632129064e-256
        9.5985419777e+26 -6.4342848304e-177 8.5271411519e+168 -2.6064360397e+163 -2.3828641133e-05 1.0063508604e+306
        -4.8073426307e+211 -1.4778047488e-279 1.583584953e-89 -1.3990170978e-299 1.8432121446e-88 -5.1330528109e+165
        2.7572940788e-143 5.1302726846e-191 7.161852171e-31 -5.106048152e-209 1.1368832725e-170 -7.3147303097e-259
        -4.644969128e-121 5.095908363e+104 -2.0079488156e-216 2.3761095574e+148 1.9388156642e+59 2.9646884775e+147
        -3.3351799549e+250 8.2276420524e+62 4.8597539889e+13 -6.67101839e-195 -8.1521505332e+174 6.722084734e+295
        3.4749933916e+292 -3.5389200408e-21 -1.2769090892e-267 3.5026969888e-164 -1.6741262053e-283 -3.2011286492e-285
        1.0492109622e-252 -1.167794822e+190 61883459784 -1.4513983848e-291 -6.6109372267e-107 1.1352484863e-302
        1.135320949e+266 1.1167896877e+21 1.0806928136e-314 2.3834498692e+180 9.5327272917e-315 7.1993841493e+252
        1.6820024946e+199 1.282890856e-319 2.2174856017e-311 8.0303713253e+165 5.323875565e-310 0
        9.0768441781e+223 1.9772250577e+159 2.0180179973e-311 5.2923977766e-260 2.0173782476e+88 1.2882298307e-231
        -nan 8.2286537517e+44 7.5697007608e+173 1.2620817203e+122 1.0206768609e-202 1.3045249531e-309
        -5.5673683297e-245 -4.8322862737e+29 2.783985191e+191 -2.2295257264e-249 3.5726224882e-142 1.683815456e+17
        -3.1580186565e+47 1.0350111574e+64 2.1570780652e-261 -5.8402838734e-246 2.7238944993e-109 -2.6518345786e-05
        6.2888763724e+150 -1.2194205953e-158 -9.8421187805e+183 6.0109572171e-309 2.5572807434e+82 -8.0927164721e-13
        -1.6904177308e+249 4.339564228e+303 2.3066000625e+52 -3.1783362185e-161 -3.8405233276e-267 1.207125032e+44
        -4.3709566597e-209 -2.7291045859e-269 7.736170082e-267 -1.201834307e+156 8.3301777772e-302 1.0519271477e-08
        1.5487258297e-71 1.6097840387e+128 6.3159767092e+91 -2.2903716541e+260 1.0011739301e-284 -2.7910971368e-143
        2.6812440503e+188 4.1569768484e-306 2.0129977283e-308 -6.5187848524e+296 3.3148951316e-248 2.9077645402e+285
        -9.8125533707e-23 -2.9717048767e-83 2.5106945629e-30 -1.3033101096e+119 3.7066275378e-275 -1.3142815299e-94
        7.2751300427e+254 2.4407008927e+112 -2.2081681072e-246 0.00026531475309 -3.452632573e-204 5.4692114351e+298
        7.7813095489e+278 6.7306832605e+226 6.5823498505e-308 6.3033168022e-263 -3.0485001634e+83 8.3544993509e+252
        -1.1353487938e-272 4.6174795333e-67 6.1490478996e-245 3.4094966111e-274 2.075916515e-114 -2.6467886883e-61
        -3.187128608e-180 1.7752346838e+254 1.0553984551e+178 8.4560725903e-227 6.0257978537e-302 5.8618332086e-176
        -1.8341916482e-144 2.0080418716e-79 -3.257138674e+13 -2899.3242194 -1.368666199e-236 3.0190064398e+95
        -1.458788637e+102 3.935816928e+288 -2.6099419502e+95 -1.3861290912e+190 8.5494728601e-119 -1.1415754711e-90
        1.9690619737e+24 -3.0001870006e-84 3.9292635719e+154 1.1249672392e-171 -23.446475491 5.1179279257e-89
        2.7161274221e-247 -2.4990912405e-265 -6627591.7375 2.4572998808e+13 -1.2725720821e-140 -8.8200507693e+245
        5.5629655491e-309 3.2176743796e+227 -2.7951966259e+256 3.139720675e-115 9.2121817537e-271 -4.4799231418e+107
        1.7587361611e-77 8.7013597969e+26 -3.1299408484e-307 1.4987937917e-154 -8.9793157122e+206 -5.1454999268e+47
        4.4601490406e+43 3.2710396872e-306 2.3834498692e+180 9.5327272917e-315 7.1993841493e+252 9.7538806395e+199
        2.1952983336e-152 8.4073629428e-315 9.3367814953e-313 2.3834498692e+180 9.5327272917e-315 7.3552149558e+223
        2.3456238992e+251 1.5148031799e+20 3.1554910559e-317 1.4429571389e-312 8.0303713253e+165 5.323875565e-310
        0 2.3834498692e+180 9.5327272917e-315 7.3552149558e+223 1.8282391754e+44 1.9988751e+161
        3.7053125039e-317 1.4641770969e-312 8.0303713253e+165 5.323875565e-310 0 2.3834498692e+180
        9.5327272917e-315 7.3552149558e+223 1.2787279872e-152 2.1167962142e+214 9.4856004893e-315 1.4853970548e-312
        8.0303713253e+165 5.323875565e-310 0 2.3834498692e+180 9.5327272917e-315 7.3552149558e+223
        3.8199773598e+180 6.233898586e+228 2.4283137258e-312 1.0397779387e-312 2.3834498692e+180 9.5327272917e-315
        7.3586037726e+223 9.062034913e+227 2.4381298213e-152 8.8975926756e+247 0 1.0573004821e-321
        8.0303713253e+165 5.323875565e-310 0 9.0768441781e+223 1.9772250577e+159 5.9781943147e-322
        1.2625874956e-311 5.2923977766e-260 2.0173782476e+88 1.2882298307e-231 -nan 8.2286537517e+44
        7.5697007608e+173 1.2620817203e+122 1.0206768609e-202 1.3045249531e-309 -5.5673683298e-245 -2.7328504534e-284
        -3.7506172644e-188 -1.2531538061e+174 2.3269845335e-133 3.2470985128e+88 6.0310193245e+253 -1.272012564e-212
        -6.0703595521e-260 -2.218497857e+90 -1.5009473637e+207 2.174335306e-67 1.6442686031e+149 -4.4919413402
        6.769026718e+50 -1.6487850316e+63 1.0967601192e-13 -2.6805073285e+103 -1.9939622798e-187 -2.2514193899e-14
        -4.497587239e-218 -4.4404603603e-219 -3.5494489666e-278 2.9682892018e-306 -2.6092970454e-128 7.3958287975e+11
        2.9959047559e-205 3.9050518897e-201 1.132995472e+16 -5.8864732461e+246 8.2757326952e+297 5.222012391e-145
        6.7365024951e-22 -6.381004264e-308 4.0180186622e+246 -4.2831249602e-163 2.7054121669e-225 -1.4032727748e-253
        -1.4302941183e-190 1.6206859098e-225 1.0537235006e+58 -5.3391994152e-258 1.83507724e-17 -1.2715801711e-242
        1.6726419139e+27 3.7480911216e-100 4.0376505775e-270 8.8993541309e+170 5.7608456797e+206 5.5126862053e-111
        -8.8186339167e-272 -1.1494701934e+150 -3.2795514639e+269 2.9707431579e+43 -6.7116541597e+69 3.7169254156e-166
        2.0558086361e+217 -2.4112150225e+305 -1.9667142914e+210 -5.9819688147e+299 1.0840950979e-99 -1.1460733498e-147
        4.543860777e-159 5.109841389e-306 -8.1660148656e-86 4.2214559672e-317 2.3834498692e+180 9.5327272917e-315
        2.1838870542e+243 3.6821503999e+180 2.3434303564e-312 8.9548222389e-312 9.0768441781e+223 1.9772250577e+159
        7.6816247639e-312 5.2923977766e-260 2.0173782476e+88 1.2882298307e-231 -nan 8.2286537517e+44
        7.5697007608e+173 1.2620817203e+122 1.0206768609e-202 1.3045249531e-309 -5.5673683297e-245 -6.158866519e+24
        -9.3033657864e-292 6.0643048458e-121 -5.2020639416e+31 -4.8370016563e-291 -1.6708633502e-114 1.4471711273e-121
        -1.2402686423e+294 -1.4445448196e-266 -1.4814441636e-238 -1.3118329179e-182 -2.3368165027e+248 2.7514515817e-320
        4.4895729427e-316 2.7683059395e-316 0 0 -9.6773559389e+213 6.9348859086e+220
        8.1560533525e+228 1.7323490288e+27 3.0849783639e-306 1.0688635322e+60 1.6455300583e-201 -1.8976349228e-110
        2.3111924669e-164 -1.1750445267e+132 -6.0632099602e+49 5.519605389e+276 5.9865827396 5.5122498475e-164
        -9.5862500361e-133 -1.5189044661e+228 8.4077278996e-310 1.6639359886e+13 1.6489934996e-319 2.3834498692e+180
        9.5327272917e-315 8.8946730164e+252 2.3210528298e-312 8.4879831742e-313 2.3834498692e+180 9.5327272917e-315
        5.2986205287e+180 7.776986903e+160 1.7263177736e-306 1.0375378563e-321 8.0303713253e+165 5.323875565e-310
        0 9.0768441781e+223 1.9772250577e+159 5.9781943147e-322 1.7355190185e-316 1.7374170211e-316
        5.4347221043e-322 1.6304166313e-322 1.7375601025e-316 6.9524031655e-310 3.1620201334e-322 2.3715151e-322
        1.7375442924e-316 1.9762625834e-323 8.4073529528e-315 0 5.5335352334e-322 2.3715151e-322
        1.7376154378e-316 1.9762625834e-323 9.0730833624e-315 0 7.9050503335e-322 3.1620201334e-322
        1.7370328356e-316 6.013469528e-154 2.4356600956e-154 6.013470017e-154 6.013470017e-154 4.0631958714e-320
        1.1067070467e-321 4.7430302001e-322 1.7374265071e-316 1.083555427e-314 0 0
        1.5558309992e-317 0 1.7375553595e-316 0 0 1.7375292728e-316
        7.6678988235e-321 5.5335352334e-322 1.7374312502e-316 1.737567217e-316 1.737567217e-316 1.7375680075e-316
        1.7375711696e-316 1.7375711696e-316 0 0 0 1.7375597072e-316
        0 0 0 2.379914216e-320 1.7378138546e-316 6.9524031655e-310
        0 0 1.7375830271e-316 6.9524031655e-310 3.1620201334e-322 3.9525251667e-322
        1.737567217e-316 1.9762625834e-323 9.6542766499e-315 0 1.7375664265e-316 2.4703282292e-323
        2.1529490254e-312 0 7.1145453001e-322 3.9525251667e-322 1.7371569449e-316 2.4703282292e-323
        2.1304067156e-312 0 1.7375703791e-316 4.9406564584e-324 2.3715151e-322 0
        0 1.6304166313e-322 1.7378138546e-316 1.7373648477e-316 1.2648080534e-321 4.7430302001e-322
        1.7375498259e-316 1.083555427e-314 0 0 1.5558319873e-317 0
        1.7375782841e-316 0 0 1.7375292728e-316 1.7391110734e-321 5.5335352334e-322
        1.737554569e-316 1.7375901417e-316 1.7375901417e-316 2.190193008e-320 1.988305137e-316 1.6155432791e-316
        0 0 0 1.7375826319e-316 0 0
        0 2.1506677563e-320 1.73747789e-316 6.9524031655e-310 0 0
        1.7375711696e-316 6.9524031655e-310 3.1620201334e-322 3.9525251667e-322 1.7375901417e-316 1.9762625834e-323
        9.6542766499e-315 0 1.7375893512e-316 2.4703282292e-323 2.1529490254e-312 0
        7.1145453001e-322 3.9525251667e-322 1.7375632645e-316 4.9406564584e-323 2.163202629e+185 1.2573476621e-319
        1.7375933037e-316 4.9406564584e-324 2.4209216646e-322 0 0 1.6304166313e-322
        1.7378138546e-316 1.7375711696e-316 1.2648080534e-321 4.7430302001e-322 1.7375727506e-316 1.083555427e-314
        0 0 1.5558329754e-317 0 1.7376012087e-316 0
        0 1.7375292728e-316 1.7391110734e-321 5.5335352334e-322 1.7375774936e-316 1.7376114853e-316
        1.7376114853e-316 1.7376122758e-316 1.7376154378e-316 1.7376154378e-316 0 0
        0 1.7376055565e-316 0 0 0 1.9214212967e-320
        1.7378138546e-316 1.73747789e-316 0 0 1.7376114853e-316 1.9762625834e-323
        9.6542766499e-315 1.8898010953e-320 6.9524031655e-310 1.9677433106e-316 0 0
        5.5335352334e-322 3.9525251667e-322 1.7375861892e-316 2.4703282292e-323 2.1304067155e-312 0
        1.7376146473e-316 4.9406564584e-324 2.4703282292e-322 0 0 2.4209216646e-322
        1.7376280859e-316 1.7374976526e-316 0 0 1.18575755e-321 4.7430302001e-322
        1.7376589156e-316 1.083555427e-314 0 0 1.5558339636e-317 0
        1.7376233429e-316 0 0 1.7315664933e-316 1.66006057e-321 5.5335352334e-322
        1.7376636586e-316 1.7376399435e-316 1.7376399435e-316 1.737643896e-316 1.7376518011e-316 1.7376518011e-316
        1.7376810498e-316 1.737681445e-316 1.737681445e-316 1.7376573346e-316 7.9050503335e-323 1.4821969375e-322
        0 3.5622133065e-321 1.7379387544e-316 1.73747789e-316 5.9781943147e-322 2.2183547498e-321
        1.7376691922e-316 6.9524031655e-310 0 2.0602537432e-321 1.7376921168e-316 1.7376802593e-316
        9.0921742888e-307 0 1.73763441e-316 6.9169190418e-323 6.6854636738e+151 6.2686850989e-310
        1.737640734e-316 7.9050503335e-323 7.9050503335e-323 0 1.737637572e-316 1.9762625834e-323
        8.4073529528e-315 0 1.737642315e-316 8.8931816251e-323 8.8931816251e-323 0
        8.6955553668e-322 1.5810100667e-322 1.7376802593e-316 1.130726461e+277 0 1.0325971998e-321
        1.7376921168e-316 6.9524031655e-310 1.4602604228e-319 8.7449619314e-322 1.7375008146e-316 1.7376312479e-316
        1.4821969375e-322 0 1.7376462675e-316 4.9406564584e-324 2.4703282292e-322 0
        1.7376478485e-316 3.9525251667e-323 4.2320018458e+175 0 1.7376549631e-316 1.3339772438e-322
        1.3339772438e-322 0 1.7376510106e-316 4.9406564584e-324 2.4209216646e-322 0
        2.3715151e-321 2.3715151e-322 1.7376565441e-316 8.9041220161e+247 4.7496791951e+180 5.9991817093e-310
        0 2.4209216646e-322 1.7376921168e-316 6.9524031655e-310 8.8756363613e+247 3.5757907245e-317
        2.84581812e-321 2.3715151e-322 1.7375237393e-316 6.013470017e-154 0 0
        3.08296963e-321 4.7430302001e-322 1.737487376e-316 1.083555427e-314 0 0
        1.5558349517e-317 0 1.7376644492e-316 0 0 1.7376185999e-316
        5.7706867434e-321 5.5335352334e-322 1.7374921191e-316 1.7376763067e-316 1.7376763067e-316 1.7376770972e-316
        1.7376802593e-316 1.7376802593e-316 0 0 0 1.7376687969e-316
        0 0 0 1.28901727e-320 1.7378138546e-316 6.9524031655e-310
        0 0 1.7376802593e-316 6.9524031655e-310 3.1620201334e-322 3.9525251667e-322
        1.7376763067e-316 1.9762625834e-323 8.4073529528e-315 0 1.7376755162e-316 1.4821969375e-323
        3.575033816e-317 0 7.1145453001e-322 3.9525251667e-322 1.7376075328e-316 2.4703282292e-323
        2.1517892066e-312 0 1.7376794687e-316 4.9406564584e-324 2.3715151e-322 0
        0 1.6304166313e-322 1.7378138546e-316 1.7375940942e-316 1.2648080534e-321 4.7430302001e-322
        1.7377182035e-316 1.083555427e-314 0 0 1.5558359398e-317 0
        1.7376873738e-316 0 0 1.7315664933e-316 1.7391110734e-321 5.5335352334e-322
        1.7377229465e-316 1.7377023934e-316 1.7377023934e-316 1.7377047649e-316 1.7377110889e-316 1.7377110889e-316
        1.7378146451e-316 1.7378154356e-316 1.7378154356e-316 1.7377166225e-316 1.2351641146e-322 1.4821969375e-322
        0 3.0879102865e-321 1.7379387544e-316 1.7377695863e-316 1.0067450158e-314 1.7440517298e-321
        1.7377284801e-316 6.9524031655e-310 0 1.5859507232e-321 1.7377774914e-316 1.7378138546e-316
        9.0921742888e-307 0 1.7376984409e-316 6.9169190418e-323 6.6854636738e+151 6.2686850989e-310
        1.7377000219e-316 1.9762625834e-323 8.4073529528e-315 0 1.7377031839e-316 8.8931816251e-323
        8.8931816251e-323 0 7.1145453001e-322 1.5810100667e-322 1.7378138546e-316 6.1963341585e+223
        1.4602604228e-319 7.1639518647e-322 1.7367822455e-316 1.7150362426e-316 1.5316035021e-322 0
        1.7377071364e-316 2.4703282292e-323 2.2998299715e-312 0 1.737714251e-316 1.3833838084e-322
        1.3833838084e-322 0 1.7377102984e-316 4.9406564584e-324 2.4209216646e-322 0
        1.89721208e-321 2.3715151e-322 1.7377316421e-316 8.9041220161e+247 9.0441006012e+223 2.2627651582e-306
        0 2.4209216646e-322 1.7378257122e-316 6.9524031655e-310 3.9461818324e+160 1.0064848487e-314
        2.3715151e-321 2.3715151e-322 1.7376541726e-316 6.013470017e-154 6.0134700151e-154 1.5810100667e-322
        2.60866661e-321 4.7430302001e-322 1.7377790724e-316 1.083555427e-314 0 0
        1.555836928e-317 0 1.737723737e-316 0 0 1.7376826308e-316
        5.3754342268e-321 5.5335352334e-322 1.7377838154e-316 1.7377340136e-316 1.7377340136e-316 1.7377348041e-316
        1.7377363851e-316 1.7377363851e-316 1.7377964635e-316 1.7377976492e-316 1.7377980445e-316 1.7377371756e-316
        2.0750757125e-322 2.0750757125e-322 0 1.5859507232e-321 1.7377498237e-316 1.7376059518e-316
        0 1.6304166313e-322 1.7377498237e-316 6.9524031655e-310 3.1620201334e-322 2.3715151e-322
        1.7377340136e-316 1.9762625834e-323 8.4073529528e-315 0 5.5335352334e-322 2.3715151e-322
        1.737795673e-316 1.9762625834e-323 9.6526627153e-315 0 7.9050503335e-322 3.1620201334e-322
        1.7375466639e-316 6.013469528e-154 2.4356600956e-154 6.013470017e-154 6.013470017e-154 4.0631958714e-320
        1.1067070467e-321 4.7430302001e-322 1.7376178094e-316 1.083555427e-314 0 0
        1.5558379161e-317 0 1.7377450807e-316 0 0 1.737718994e-316
        7.5097978168e-321 5.5335352334e-322 1.7376225524e-316 1.7377553572e-316 1.7377553572e-316 1.7377561477e-316
        1.7377577287e-316 1.7377577287e-316 0 0 0 1.7377494284e-316
        0 0 0 4.8270213599e-321 1.7378138546e-316 6.9524031655e-310
        0 1.6304166313e-322 1.7377695863e-316 6.9524031655e-310 3.1620201334e-322 2.3715151e-322
        1.7377553572e-316 2.4703282292e-323 2.1529490254e-312 0 5.5335352334e-322 2.3715151e-322
        1.737715832e-316 2.4703282292e-323 2.2998299715e-312 0
      </DataArray>
      <DataArray type="Float64" Name="FlowMap" NumberOfComponents="3" format="ascii" RangeMin="0.5" RangeMax="11.848654987">
        0 0 0.5 1.2040816545 0 0.5
        1.4081633091 0 0.5 1.6122448444 0 0.5
        1.816326499 0 0.5 2.0204081535 0 0.5
        2.2244896889 0 0.5 2.4285714626 0 0.5
        2.632652998 0 0.5 2.8367347717 0 0.5
        1.0408163071 0 0.5 1.2448979616 0 0.5
        1.4489796162 0 0.5 1.6530612707 0 0.5
        1.8571428061 0 0.5 2.0612244606 0 0.5
        2.2653062344 0 0.5 4.4693875313 0 0.5
        4.6734695435 0 0.5 4.8775510788 0 0.5
        5.0816326141 0 0.5 5.2857141495 0 0.5
        3.4897959232 0 0.5 3.6938774586 0 0.5
        3.8979592323 0 0.5 4.1020407677 0 0.5
        4.306122303 0 0.5 6.5102043152 0 0.5
        6.7142858505 0 0.5 6.9183673859 0 0.5
        7.1224489212 0 0.5 7.3265304565 0 0.5
        5.5306124687 0 0.5 5.7346940041 0 0.5
        5.9387755394 0 0.5 6.1428570747 0 0.5
        6.3469386101 0 0.5 8.5510206223 0 0.5
        8.7551021576 0 0.5 8.9591836929 0 0.5
        9.1632652283 0 0.5 9.3673467636 0 0.5
        7.5714287758 0 0.5 7.7755103111 0 0.5
        7.9795918465 0 0.5 8.1836738586 0 0.5
        8.387755394 0 0.5 10.591836929 0 0.5
        10.795918465 0 0.5 11 0 0.5
        0 0.20833332837 0.5 1.2040816545 0.20833332837 0.5
        1.4081633091 0.20833332837 0.5 1.6122448444 0.20833332837 0.5
        1.816326499 0.20833332837 0.5 2.0204081535 0.20833332837 0.5
        2.2244896889 0.20833332837 0.5 2.4285714626 0.20833332837 0.5
        2.632652998 0.20833332837 0.5 2.8367347717 0.20833332837 0.5
        1.0408163071 0.20833332837 0.5 1.2448979616 0.20833332837 0.5
        1.4489796162 0.20833332837 0.5 1.6530612707 0.20833332837 0.5
        1.8571428061 0.20833332837 0.5 2.0612244606 0.20833332837 0.5
        2.2653062344 0.20833332837 0.5 4.4693875313 0.20833332837 0.5
        4.6734695435 0.20833332837 0.5 4.8775510788 0.20833332837 0.5
        5.0816326141 0.20833332837 0.5 5.2857141495 0.20833332837 0.5
        3.4897959232 0.20833332837 0.5 3.6938774586 0.20833332837 0.5
        3.8979592323 0.20833332837 0.5 4.1020407677 0.20833332837 0.5
        4.306122303 0.20833332837 0.5 6.5102043152 0.20833332837 0.5
        6.7142858505 0.20833332837 0.5 6.9183673859 0.20833332837 0.5
        7.1224489212 0.20833332837 0.5 7.3265304565 0.20833332837 0.5
        5.5306124687 0.20833332837 0.5 5.7346940041 0.20833332837 0.5
        5.9387755394 0.20833332837 0.5 6.1428570747 0.20833332837 0.5
        6.3469386101 0.20833332837 0.5 8.5510206223 0.20833332837 0.5
        8.7551021576 0.20833332837 0.5 8.9591836929 0.20833332837 0.5
        9.1632652283 0.20833332837 0.5 9.3673467636 0.20833332837 0.5