# vtk DataFile Version 4.1
vtk output
ASCII
DATASET STRUCTURED_POINTS
DIMENSIONS 200 100 2
SPACING 0.251256 0.252525 0
ORIGIN 0 0 0
POINT_DATA 40000
SCALARS Result double
LOOKUP_TABLE default
1 0.75137900964 0.5183709957 0.3156084662 0.155824564 0.049053447106 0.0020001605336 0.017619570855 0.094930805599 
0.22907885038 0.41163943555 0.63114806606 0.87381997229 1.1244157702 1.3671984688 1.5869217265 1.7697872955 1.9043115281 
1.9820465309 1.9981106775 1.9514951668 1.8451273737 1.6856870152 1.4831866755 1.2503430321 1.0017782711 0.7531018376 
0.51993018989 0.31690611186 0.15677917119 0.049605068113 0.0021141544926 0.017288779139 0.094176001367 0.22794743405 0.41020245816 
0.62949576735 0.87205611382 1.1226511193 1.3655438425 1.5854810326 1.768651007 1.9035510022 1.9817095272 1.9982183593 
1.9520407718 1.8460766389 1.6869803284 1.4847428187 1.2520642822 1.0035565365 0.75482544632 0.52149090218 0.31820591764 
0.15773644485 0.050159694506 0.0022313040165 0.016961095002 0.093424061577 0.22681845915 0.40876734586 0.62784464026 0.87029265993 
1.1208860805 1.3638880603 1.5840384872 1.7675122879 1.902787619 1.981369419 1.9983228844 1.9525833662 1.8470232286 
1.6882714691 1.486297429 1.2537847353 1.0053347907 0.75654983034 0.52305312764 0.31950787942 0.15869638197 0.050717324533 
0.0023516087351 0.016636519481 0.092674988608 0.22569192925 0.40733410318 0.62619469003 0.86852961621 1.1191206595 1.3622311274 
1.582594095 1.7663711418 1.9020213809 1.9810262076 1.9984242526 1.9531229483 1.8479671398 1.6895604333 1.4878505015 
1.2555043858 1.007113028 0.75827498421 0.52461686132 0.32081199308 0.1596589795 0.051277956429 0.0024750682677 0.016315053601 
0.091928784827 0.2245678479 0.40590273466 0.62454592186 0.86676698823 1.1173548617 1.360573049 1.5811478604 1.7652275721 
1.9012522905 1.9806798938 1.9985224635 1.9536595164 1.8489083695 1.690847217 1.4894020313 1.2572232283 1.0088912429 
0.76000090248 0.52618209828 0.32211825451 0.16062423439 0.051841588421 0.0026016822241 0.015996698379 0.091185452595 0.22344621866 
0.40447324483 0.62289834097 0.86500478157 1.1155886929 1.3589138304 1.5796997882 1.7640815827 1.90048035 1.980330479 
1.9986175169 1.9541930688 1.8498469147 1.6921318161 1.4909520135 1.2589412574 1.0106694296 0.76172757968 0.52774883357 
0.32342665957 0.16159214361 0.052408218728 0.0027314502038 0.015681454822 0.090444994262 0.22232704508 0.4030456382 0.62125195257 
0.86324300179 1.1138221585 1.3572534768 1.5782498827 1.762933177 1.899705562 1.979977964 1.9987094123 1.9547236038 
1.8507827725 1.6934142264 1.4925004432 1.2606584677 1.0124475826 0.76345501037 0.52931706224 0.32473720413 0.16256270407 
0.052977845558 0.0028643717964 0.015369323927 0.089707412171 0.22121033069 0.4016199193 0.61960676186 0.86148165448 1.1120552642 
1.3555919934 1.5767981487 1.7617823587 1.8989279289 1.9796223502 1.9987981496 1.9552511197 1.8517159399 1.694694444 
1.4940473155 1.2623748537 1 0.75137900964 0.5183709957 0.3156084662 0.155824564 0.049053447106 0.0020001605336 
0.017619570855 0.094930805599 0.22907885038 0.41163943555 0.63114806606 0.87381997229 1.1244157702 1.3671984688 1.5869217265 
1.7697872955 1.9043115281 1.9820465309 1.9981106775 1.9514951668 1.8451273737 1.6856870152 1.4831866755 1.2503430321 
1.0017782711 0.7531018376 0.51993018989 0.31690611186 0.15677917119 0.049605068113 0.0021141544926 0.017288779139 0.094176001367 
0.22794743405 0.41020245816 0.62949576735 0.87205611382 1.1226511193 1.3655438425 1.5854810326 1.768651007 1.9035510022 
1.9817095272 1.9982183593 1.9520407718 1.8460766389 1.6869803284 1.4847428187 1.2520642822 1.0035565365 0.75482544632 
0.52149090218 0.31820591764 0.15773644485 0.050159694506 0.0022313040165 0.016961095002 0.093424061577 0.22681845915 0.40876734586 
0.62784464026 0.87029265993 1.1208860805 1.3638880603 1.5840384872 1.7675122879 1.902787619 1.981369419 1.9983228844 
1.9525833662 1.8470232286 1.6882714691 1.486297429 1.2537847353 1.0053347907 0.75654983034 0.52305312764 0.31950787942 
0.15869638197 0.050717324533 0.0023516087351 0.016636519481 0.092674988608 0.22569192925 0.40733410318 0.62619469003 0.86852961621 
1.1191206595 1.3622311274 1.582594095 1.7663711418 1.9020213809 1.9810262076 1.9984242526 1.9531229483 1.8479671398 
1.6895604333 1.4878505015 1.2555043858 1.007113028 0.75827498421 0.52461686132 0.32081199308 0.1596589795 0.051277956429 
0.0024750682677 0.016315053601 0.091928784827 0.2245678479 0.40590273466 0.62454592186 0.86676698823 1.1173548617 1.360573049 
1.5811478604 1.7652275721 1.9012522905 1.9806798938 1.9985224635 1.9536595164 1.8489083695 1.690847217 1.4894020313 
1.2572232283 1.0088912429 0.76000090248 0.52618209828 0.32211825451 0.16062423439 0.051841588421 0.0026016822241 0.015996698379 
0.091185452595 0.22344621866 0.40447324483 0.62289834097 0.86500478157 1.1155886929 1.3589138304 1.5796997882 1.7640815827 
1.90048035 1.980330479 1.9986175169 1.9541930688 1.8498469147 1.6921318161 1.4909520135 1.2589412574 1.0106694296 
0.76172757968 0.52774883357 0.32342665957 0.16159214361 0.052408218728 0.0027314502038 0.015681454822 0.090444994262 0.22232704508 
0.4030456382 0.62125195257 0.86324300179 1.1138221585 1.3572534768 1.5782498827 1.762933177 1.899705562 1.979977964 
1.9987094123 1.9547236038 1.8507827725 1.6934142264 1.4925004432 1.2606584677 1.0124475826 0.76345501037 0.52931706224 
0.32473720413 0.16256270407 0.052977845558 0.0028643717964 0.015369323927 0.089707412171 0.22121033069 0.4016199193 0.61960676186 
0.86148165448 1.1120552642 1.3555919934 1.5767981487 1.7617823587 1.8989279289 1.9796223502 1.9987981496 1.9552511197 
1.8517159399 1.694694444 1.4940473155 1.2623748537 1 0.75137900964 0.5183709957 0.3156084662 0.155824564 
0.049053447106 0.0020001605336 0.017619570855 0.094930805599 0.22907885038 0.41163943555 0.63114806606 0.87381997229 1.1244157702 
1.3671984688 1.5869217265 1.7697872955 1.9043115281 1.9820465309 1.9981106775 1.9514951668 1.8451273737 1.6856870152 
1.4831866755 1.2503430321 1.0017782711 0.7531018376 0.51993018989 0.31690611186 0.15677917119 0.049605068113 0.0021141544926 
0.017288779139 0.094176001367 0.22794743405 0.41020245816 0.62949576735 0.87205611382 1.1226511193 1.3655438425 1.5854810326 
1.768651007 1.9035510022 1.9817095272 1.9982183593 1.9520407718 1.8460766389 1.6869803284 1.4847428187 1.2520642822 
1.0035565365 0.75482544632 0.52149090218 0.31820591764 0.15773644485 0.050159694506 0.0022313040165 0.016961095002 0.093424061577 
0.22681845915 0.40876734586 0.62784464026 0.87029265993 1.1208860805 1.3638880603 1.5840384872 1.7675122879 1.902787619 
1.981369419 1.9983228844 1.9525833662 1.8470232286 1.6882714691 1.486297429 1.2537847353 1.0053347907 0.75654983034 
0.52305312764 0.31950787942 0.15869638197 0.050717324533 0.0023516087351 0.016636519481 0.092674988608 0.22569192925 0.40733410318 
0.62619469003 0.86852961621 1.1191206595 1.3622311274 1.582594095 1.7663711418 1.9020213809 1.9810262076 1.9984242526 
1.9531229483 1.8479671398 1.6895604333 1.4878505015 1.2555043858 1.007113028 0.75827498421 0.52461686132 0.32081199308 
0.1596589795 0.051277956429 0.0024750682677 0.016315053601 0.091928784827 0.2245678479 0.40590273466 0.62454592186 0.86676698823 
1.1173548617 1.360573049 1.5811478604 1.7652275721 1.9012522905 1.9806798938 1.9985224635 1.9536595164 1.8489083695 
1.690847217 1.4894020313 1.2572232283 1.0088912429 0.76000090248 0.52618209828 0.32211825451 0.16062423439 0.051841588421 
0.0026016822241 0.015996698379 0.091185452595 0.22344621866 0.40447324483 0.62289834097 0.86500478157 1.1155886929 1.3589138304 
1.5796997882 1.7640815827 1.90048035 1.980330479 1.9986175169 1.9541930688 1.8498469147 1.6921318161 1.4909520135 
1.2589412574 1.0106694296 0.76172757968 0.52774883357 0.32342665957 0.16159214361 0.052408218728 0.0027314502038 0.015681454822 
0.090444994262 0.22232704508 0.4030456382 0.62125195257 0.86324300179 1.1138221585 1.3572534768 1.5782498827 1.762933177 
1.899705562 1.979977964 1.9987094123 1.9547236038 1.8507827725 1.6934142264 1.4925004432 1.2606584677 1.0124475826 
0.76345501037 0.52931706224 0.32473720413 0.16256270407 0.052977845558 0.0028643717964 0.015369323927 0.089707412171 0.22121033069 
0.4016199193 0.61960676186 0.86148165448 1.1120552642 1.3555919934 1.5767981487 1.7617823587 1.8989279289 1.9796223502 
1.9987981496 1.9552511197 1.8517159399 1.694694444 1.4940473155 1.2623748537 1 0.75137900964 0.5183709957 
0.3156084662 0.155824564 0.049053447106 0.0020001605336 0.017619570855 0.094930805599 0.22907885038 0.41163943555 0.63114806606 
0.87381997229 1.1244157702 1.3671984688 1.5869217265 1.7697872955 1.9043115281 1.9820465309 1.9981106775 1.9514951668 
1.8451273737 1.6856870152 1.4831866755 1.2503430321 1.0017782711 0.7531018376 0.51993018989 0.31690611186 0.15677917119 
0.049605068113 0.0021141544926 0.017288779139 0.094176001367 0.22794743405 0.41020245816 0.62949576735 0.87205611382 1.1226511193 
1.3655438425 1.5854810326 1.768651007 1.9035510022 1.9817095272 1.9982183593 1.9520407718 1.8460766389 1.6869803284 
1.4847428187 1.2520642822 1.0035565365 0.75482544632 0.52149090218 0.31820591764 0.15773644485 0.050159694506 0.0022313040165 
0.016961095002 0.093424061577 0.22681845915 0.40876734586 0.62784464026 0.87029265993 1.1208860805 1.3638880603 1.5840384872 
1.7675122879 1.902787619 1.981369419 1.9983228844 1.9525833662 1.8470232286 1.6882714691 1.486297429 1.2537847353 
1.0053347907 0.75654983034 0.52305312764 0.31950787942 0.15869638197 0.050717324533 0.0023516087351 0.016636519481 0.092674988608 
0.22569192925 0.40733410318 0.62619469003 0.86852961621 1.1191206595 1.3622311274 1.582594095 1.7663711418 1.9020213809 
1.9810262076 1.9984242526 1.9531229483 1.8479671398 1.6895604333 1.4878505015 1.2555043858 1.007113028 0.75827498421 
0.52461686132 0.32081199308 0.1596589795 0.051277956429 0.0024750682677 0.016315053601 0.091928784827 0.2245678479 0.40590273466 
0.62454592186 0.86676698823 1.1173548617 1.360573049 1.5811478604 1.7652275721 1.9012522905 1.9806798938 1.9985224635 
1.9536595164 1.8489083695 1.690847217 1.4894020313 1.2572232283 1.0088912429 0.76000090248 0.52618209828 0.32211825451 
0.16062423439 0.051841588421 0.0026016822241 0.015996698379 0.091185452595 0.22344621866 0.40447324483 0.62289834097 0.86500478157 
1.1155886929 1.3589138304 1.5796997882 1.7640815827 1.90048035 1.980330479 1.9986175169 1.9541930688 1.8498469147 
1.6921318161 1.4909520135 1.2589412574 1.0106694296 0.76172757968 0.52774883357 0.32342665957 0.16159214361 0.052408218728 
0.0027314502038 0.015681454822 0.090444994262 0.22232704508 0.4030456382 0.62125195257 0.86324300179 1.1138221585 1.3572534768 
1.5782498827 1.762933177 1.899705562 1.979977964 1.9987094123 1.9547236038 1.8507827725 1.6934142264 1.4925004432 
1.2606584677 1.0124475826 0.76345501037 0.52931706224 0.32473720413 0.16256270407 0.052977845558 0.0028643717964 0.015369323927 
0.089707412171 0.22121033069 0.4016199193 0.61960676186 0.86148165448 1.1120552642 1.3555919934 1.5767981487 1.7617823587 
1.8989279289 1.9796223502 1.9987981496 1.9552511197 1.8517159399 1.694694444 1.4940473155 1.2623748537 1 
0.75137900964 0.5183709957 0.3156084662 0.155824564 0.049053447106 0.0020001605336 0.017619570855 0.094930805599 0.22907885038 
0.41163943555 0.63114806606 0.87381997229 1.1244157702 1.3671984688 1.5869217265 1.7697872955 1.9043115281 1.9820465309 
1.9981106775 1.9514951668 1.8451273737 1.6856870152 1.4831866755 1.2503430321 1.0017782711 0.7531018376 0.51993018989 
0.31690611186 0.15677917119 0.049605068113 0.0021141544926 0.017288779139 0.094176001367 0.22794743405 0.41020245816 0.62949576735 
0.87205611382 1.1226511193 1.3655438425 1.5854810326 1.768651007 1.9035510022 1.9817095272 1.9982183593 1.9520407718 
1.8460766389 1.6869803284 1.4847428187 1.2520642822 1.0035565365 0.75482544632 0.52149090218 0.31820591764 0.15773644485 
0.050159694506 0.0022313040165 0.016961095002 0.093424061577 0.22681845915 0.40876734586 0.62784464026 0.87029265993 1.1208860805 
1.3638880603 1.5840384872 1.7675122879 1.902787619 1.981369419 1.9983228844 1.9525833662 1.8470232286 1.6882714691 
1.486297429 1.2537847353 1.0053347907 0.75654983034 0.52305312764 0.31950787942 0.15869638197 0.050717324533 0.0023516087351 
0.016636519481 0.092674988608 0.22569192925 0.40733410318 0.62619469003 0.86852961621 1.1191206595 1.3622311274 1.582594095 
1.7663711418 1.9020213809 1.9810262076 1.9984242526 1.9531229483 1.8479671398 1.6895604333 1.4878505015 1.2555043858 
1.007113028 0.75827498421 0.52461686132 0.32081199308 0.1596589795 0.051277956429 0.0024750682677 0.016315053601 0.091928784827 
0.2245678479 0.40590273466 0.62454592186 0.86676698823 1.1173548617 1.360573049 1.5811478604 1.7652275721 1.9012522905 
1.9806798938 1.9985224635 1.9536595164 1.8489083695 1.690847217 1.4894020313 1.2572232283 1.0088912429 0.76000090248 
0.52618209828 0.32211825451 0.16062423439 0.051841588421 0.0026016822241 0.015996698379 0.091185452595 0.22344621866 0.40447324483 
0.62289834097 0.86500478157 1.1155886929 1.3589138304 1.5796997882 1.7640815827 1.90048035 1.980330479 1.9986175169 
1.9541930688 1.8498469147 1.6921318161 1.4909520135 1.2589412574 1.0106694296 0.76172757968 0.52774883357 0.32342665957 
0.16159214361 0.052408218728 0.0027314502038 0.015681454822 0.090444994262 0.22232704508 0.4030456382 0.62125195257 0.86324300179 
1.1138221585 1.3572534768 1.5782498827 1.762933177 1.899705562 1.979977964 1.9987094123 1.9547236038 1.8507827725 
1.6934142264 1.4925004432 1.2606584677 1.0124475826 0.76345501037 0.52931706224 0.32473720413 0.16256270407 0.052977845558 
0.0028643717964 0.015369323927 0.089707412171 0.22121033069 0.4016199193 0.61960676186 0.86148165448 1.1120552642 1.3555919934 
1.5767981487 1.7617823587 1.8989279289 1.9796223502 1.9987981496 1.9552511197 1.8517159399 1.694694444 1.4940473155 
1.2623748537 1 0.75137900964 0.5183709957 0.3156084662 0.155824564 0.049053447106 0.0020001605336 0.017619570855 
0.094930805599 0.22907885038 0.41163943555 0.63114806606 0.87381997229 1.1244157702 1.3671984688 1.5869217265 1.7697872955 
1.9043115281 1.9820465309 1.9981106775 1.9514951668 1.8451273737 1.6856870152 1.4831866755 1.2503430321 1.0017782711 
0.7531018376 0.51993018989 0.31690611186 0.15677917119 0.049605068113 0.0021141544926 0.017288779139 0.094176001367 0.22794743405 
0.41020245816 0.62949576735 0.87205611382 1.1226511193 1.3655438425 1.5854810326 1.768651007 1.9035510022 1.9817095272 
1.9982183593 1.9520407718 1.8460766389 1.6869803284 1.4847428187 1.2520642822 1.0035565365 0.75482544632 0.52149090218 
0.31820591764 0.15773644485 0.050159694506 0.0022313040165 0.016961095002 0.093424061577 0.22681845915 0.40876734586 0.62784464026 
0.87029265993 1.1208860805 1.3638880603 1.5840384872 1.7675122879 1.902787619 1.981369419 1.9983228844 1.9525833662 
1.8470232286 1.6882714691 1.486297429 1.2537847353 1.0053347907 0.75654983034 0.52305312764 0.31950787942 0.15869638197 
0.050717324533 0.0023516087351 0.016636519481 0.092674988608 0.22569192925 0.40733410318 0.62619469003 0.86852961621 1.1191206595 
1.3622311274 1.582594095 1.7663711418 1.9020213809 1.9810262076 1.9984242526 1.9531229483 1.8479671398 1.6895604333 
1.4878505015 1.2555043858 1.007113028 0.75827498421 0.52461686132 0.32081199308 0.1596589795 0.051277956429 0.0024750682677 
0.016315053601 0.091928784827 0.2245678479 0.40590273466 0.62454592186 0.86676698823 1.1173548617 1.360573049 1.5811478604 
1.7652275721 1.9012522905 1.9806798938 1.9985224635 1.9536595164 1.8489083695 1.690847217 1.4894020313 1.2572232283 
1.0088912429 0.76000090248 0.52618209828 0.32211825451 0.16062423439 0.051841588421 0.0026016822241 0.015996698379 0.091185452595 
0.22344621866 0.40447324483 0.62289834097 0.86500478157 1.1155886929 1.3589138304 1.5796997882 1.7640815827 1.90048035 
1.980330479 1.9986175169 1.9541930688 1.8498469147 1.6921318161 1.4909520135 1.2589412574 1.0106694296 0.76172757968 
0.52774883357 0.32342665957 0.16159214361 0.052408218728 0.0027314502038 0.015681454822 0.090444994262 0.22232704508 0.4030456382 
0.62125195257 0.86324300179 1.1138221585 1.3572534768 1.5782498827 1.762933177 1.899705562 1.979977964 1.9987094123 
1.9547236038 1.8507827725 1.6934142264 1.4925004432 1.2606584677 1.0124475826 0.76345501037 0.52931706224 0.32473720413 
0.16256270407 0.052977845558 0.0028643717964 0.015369323927 0.089707412171 0.22121033069 0.4016199193 0.61960676186 0.86148165448 
1.1120552642 1.3555919934 1.5767981487 1.7617823587 1.8989279289 1.9796223502 1.9987981496 1.9552511197 1.8517159399 
1.694694444 1.4940473155 1.2623748537 1 0.75137900964 0.5183709957 0.3156084662 0.155824564 0.049053447106 
0.0020001605336 0.017619570855 0.094930805599 0.22907885038 0.41163943555 0.63114806606 0.87381997229 1.1244157702 1.3671984688 
1.5869217265 1.7697872955 1.9043115281 1.9820465309 1.9981106775 1.9514951668 1.8451273737 1.6856870152 1.4831866755 
1.2503430321 1.0017782711 0.7531018376 0.51993018989 0.31690611186 0.15677917119 0.049605068113 0.0021141544926 0.017288779139 
0.094176001367 0.22794743405 0.41020245816 0.62949576735 0.87205611382 1.1226511193 1.3655438425 1.5854810326 1.768651007 
1.9035510022 1.9817095272 1.9982183593 1.9520407718 1.8460766389 1.6869803284 1.4847428187 1.2520642822 1.0035565365 
0.75482544632 0.52149090218 0.31820591764 0.15773644485 0.050159694506 0.0022313040165 0.016961095002 0.093424061577 0.22681845915 
0.40876734586 0.62784464026 0.87029265993 1.1208860805 1.3638880603 1.5840384872 1.7675122879 1.902787619 1.981369419 
1.9983228844 1.9525833662 1.8470232286 1.6882714691 1.486297429 1.2537847353 1.0053347907 0.75654983034 0.52305312764 
0.31950787942 0.15869638197 0.050717324533 0.0023516087351 0.016636519481 0.092674988608 0.22569192925 0.40733410318 0.62619469003 
0.86852961621 1.1191206595 1.3622311274 1.582594095 1.7663711418 1.9020213809 1.9810262076 1.9984242526 1.9531229483 
1.8479671398 1.6895604333 1.4878505015 1.2555043858 1.007113028 0.75827498421 0.52461686132 0.32081199308 0.1596589795 
0.051277956429 0.0024750682677 0.016315053601 0.091928784827 0.2245678479 0.40590273466 0.62454592186 0.86676698823 1.1173548617 
1.360573049 1.5811478604 1.7652275721 1.9012522905 1.9806798938 1.9985224635 1.9536595164 1.8489083695 1.690847217 
1.4894020313 1.2572232283 1.0088912429 0.76000090248 0.52618209828 0.32211825451 0.16062423439 0.051841588421 0.0026016822241 
0.015996698379 0.091185452595 0.22344621866 0.40447324483 0.62289834097 0.86500478157 1.1155886929 1.3589138304 1.5796997882 
1.7640815827 1.90048035 1.980330479 1.9986175169 1.9541930688 1.8498469147 1.6921318161 1.4909520135 1.2589412574 
1.0106694296 0.76172757968 0.52774883357 0.32342665957 0.16159214361 0.052408218728 0.0027314502038 0.015681454822 0.090444994262 
0.22232704508 0.4030456382 0.62125195257 0.86324300179 1.1138221585 1.3572534768 1.5782498827 1.762933177 1.899705562 
1.979977964 1.9987094123 1.9547236038 1.8507827725 1.6934142264 1.4925004432 1.2606584677 1.0124475826 0.76345501037 
0.52931706224 0.32473720413 0.16256270407 0.052977845558 0.0028643717964 0.015369323927 0.089707412171 0.22121033069 0.4016199193 
0.61960676186 0.86148165448 1.1120552642 1.3555919934 1.5767981487 1.7617823587 1.8989279289 1.9796223502 1.9987981496 
1.9552511197 1.8517159399 1.694694444 1.4940473155 1.2623748537 1 0.75137900964 0.5183709957 0.3156084662 
0.155824564 0.049053447106 0.0020001605336 0.017619570855 0.094930805599 0.22907885038 0.41163943555 0.63114806606 0.87381997229 
1.1244157702 1.3671984688 1.5869217265 1.7697872955 1.9043115281 1.9820465309 1.9981106775 1.9514951668 1.8451273737 
1.6856870152 1.4831866755 1.2503430321 1.0017782711 0.7531018376 0.51993018989 0.31690611186 0.15677917119 0.049605068113 
0.0021141544926 0.017288779139 0.094176001367 0.22794743405 0.41020245816 0.62949576735 0.87205611382 1.1226511193 1.3655438425 
1.5854810326 1.768651007 1.9035510022 1.9817095272 1.9982183593 1.9520407718 1.8460766389 1.6869803284 1.4847428187 
1.2520642822 1.0035565365 0.75482544632 0.52149090218 0.31820591764 0.15773644485 0.050159694506 0.0022313040165 0.016961095002 
0.093424061577 0.22681845915 0.40876734586 0.62784464026 0.87029265993 1.1208860805 1.3638880603 1.5840384872 1.7675122879 
1.902787619 1.981369419 1.9983228844 1.9525833662 1.8470232286 1.6882714691 1.486297429 1.2537847353 1.0053347907 
0.75654983034 0.52305312764 0.31950787942 0.15869638197 0.050717324533 0.0023516087351 0.016636519481 0.092674988608 0.22569192925 
0.40733410318 0.62619469003 0.86852961621 1.1191206595 1.3622311274 1.582594095 1.7663711418 1.9020213809 1.9810262076 
1.9984242526 1.9531229483 1.8479671398 1.6895604333 1.4878505015 1.2555043858 1.007113028 0.75827498421 0.52461686132 
0.32081199308 0.1596589795 0.051277956429 0.0024750682677 0.016315053601 0.091928784827 0.2245678479 0.40590273466 0.62454592186 
0.86676698823 1.1173548617 1.360573049 1.5811478604 1.7652275721 1.9012522905 1.9806798938 1.9985224635 1.9536595164 
1.8489083695 1.690847217 1.4894020313 1.2572232283 1.0088912429 0.76000090248 0.52618209828 0.32211825451 0.16062423439 
0.051841588421 0.0026016822241 0.015996698379 0.091185452595 0.22344621866 0.40447324483 0.62289834097 0.86500478157 1.1155886929 
1.3589138304 1.5796997882 1.7640815827 1.90048035 1.980330479 1.9986175169 1.9541930688 1.8498469147 1.6921318161 
1.4909520135 1.2589412574 1.0106694296 0.76172757968 0.52774883357 0.32342665957 0.16159214361 0.052408218728 0.0027314502038 
0.015681454822 0.090444994262 0.22232704508 0.4030456382 0.62125195257 0.86324300179 1.1138221585 1.3572534768 1.5782498827 
1.762933177 1.899705562 1.979977964 1.9987094123 1.9547236038 1.8507827725 1.6934142264 1.4925004432 1.2606584677 
1.0124475826 0.76345501037 0.52931706224 0.32473720413 0.16256270407 0.052977845558 0.0028643717964 0.015369323927 0.089707412171 
0.22121033069 0.4016199193 0.61960676186 0.86148165448 1.1120552642 1.3555919934 1.5767981487 1.7617823587 1.8989279289 
1.9796223502 1.9987981496 1.9552511197 1.8517159399 1.694694444 1.4940473155 1.2623748537 1 0.75137900964 
0.5183709957 0.3156084662 0.155824564 0.049053447106 0.0020001605336 0.017619570855 0.094930805599 0.22907885038 0.41163943555 
0.63114806606 0.87381997229 1.1244157702 1.3671984688 1.5869217265 1.7697872955 1.9043115281 1.9820465309 1.9981106775 
1.9514951668 1.8451273737 1.6856870152 1.4831866755 1.2503430321 1.0017782711 0.7531018376 0.51993018989 0.31690611186 
0.15677917119 0.049605068113 0.0021141544926 0.017288779139 0.094176001367 0.22794743405 0.41020245816 0.62949576735 0.87205611382 
1.1226511193 1.3655438425 1.5854810326 1.768651007 1.9035510022 1.9817095272 1.9982183593 1.9520407718 1.8460766389 
1.6869803284 1.4847428187 1.2520642822 1.0035565365 0.75482544632 0.52149090218 0.31820591764 0.15773644485 0.050159694506 
0.0022313040165 0.016961095002 0.093424061577 0.22681845915 0.40876734586 0.62784464026 0.87029265993 1.1208860805 1.3638880603 
1.5840384872 1.7675122879 1.902787619 1.981369419 1.9983228844 1.9525833662 1.8470232286 1.6882714691 1.486297429 
1.2537847353 1.0053347907 0.75654983034 0.52305312764 0.31950787942 0.15869638197 0.050717324533 0.0023516087351 0.016636519481 
0.092674988608 0.22569192925 0.40733410318 0.62619469003 0.86852961621 1.1191206595 1.3622311274 1.582594095 1.7663711418 
1.9020213809 1.9810262076 1.9984242526 1.9531229483 1.8479671398 1.6895604333 1.4878505015 1.2555043858 1.007113028 
0.75827498421 0.52461686132 0.32081199308 0.1596589795 0.051277956429 0.0024750682677 0.016315053601 0.091928784827 0.2245678479 
0.40590273466 0.62454592186 0.86676698823 1.1173548617 1.360573049 1.5811478604 1.7652275721 1.9012522905 1.9806798938 
1.9985224635 1.9536595164 1.8489083695 1.690847217 1.4894020313 1.2572232283 1.0088912429 0.76000090248 0.52618209828 
0.32211825451 0.16062423439 0.051841588421 0.0026016822241 0.015996698379 0.091185452595 0.22344621866 0.40447324483 0.62289834097 
0.86500478157 1.1155886929 1.3589138304 1.5796997882 1.7640815827 1.90048035 1.980330479 1.9986175169 1.9541930688 
1.8498469147 1.6921318161 1.4909520135 1.2589412574 1.0106694296 0.76172757968 0.52774883357 0.32342665957 0.16159214361 
0.052408218728 0.0027314502038 0.015681454822 0.090444994262 0.22232704508 0.4030456382 0.62125195257 0.86324300179 1.1138221585 
1.3572534768 1.5782498827 1.762933177 1.899705562 1.979977964 1.9987094123 1.9547236038 1.8507827725 1.6934142264 
1.4925004432 1.2606584677 1.0124475826 0.76345501037 0.52931706224 0.32473720413 0.16256270407 0.052977845558 0.0028643717964 
0.015369323927 0.089707412171 0.22121033069 0.4016199193 0.61960676186 0.86148165448 1.1120552642 1.3555919934 1.5767981487 
1.7617823587 1.8989279289 1.9796223502 1.9987981496 1.9552511197 1.8517159399 1.694694444 1.4940473155 1.2623748537 
1 0.75137900964 0.5183709957 0.3156084662 0.155824564 0.049053447106 0.0020001605336 0.017619570855 0.094930805599 
0.22907885038 0.41163943555 0.63114806606 0.87381997229 1.1244157702 1.3671984688 1.5869217265 1.7697872955 1.9043115281 
1.9820465309 1.9981106775 1.9514951668 1.8451273737 1.6856870152 1.4831866755 1.2503430321 1.0017782711 0.7531018376 
0.51993018989 0.31690611186 0.15677917119 0.049605068113 0.0021141544926 0.017288779139 0.094176001367 0.22794743405 0.41020245816 
0.62949576735 0.87205611382 1.1226511193 1.3655438425 1.5854810326 1.768651007 1.9035510022 1.9817095272 1.9982183593 
1.9520407718 1.8460766389 1.6869803284 1.4847428187 1.2520642822 1.0035565365 0.75482544632 0.52149090218 0.31820591764 
0.15773644485 0.050159694506 0.0022313040165 0.016961095002 0.093424061577 0.22681845915 0.40876734586 0.62784464026 0.87029265993 
1.1208860805 1.3638880603 1.5840384872 1.7675122879 1.902787619 1.981369419 1.9983228844 1.9525833662 1.8470232286 
1.6882714691 1.486297429 1.2537847353 1.0053347907 0.75654983034 0.52305312764 0.31950787942 0.15869638197 0.050717324533 
0.0023516087351 0.016636519481 0.092674988608 0.22569192925 0.40733410318 0.62619469003 0.86852961621 1.1191206595 1.3622311274 
1.582594095 1.7663711418 1.9020213809 1.9810262076 1.9984242526 1.9531229483 1.8479671398 1.6895604333 1.4878505015 
1.2555043858 1.007113028 0.75827498421 0.52461686132 0.32081199308 0.1596589795 0.051277956429 0.0024750682677 0.016315053601 
0.091928784827 0.2245678479 0.40590273466 0.62454592186 0.86676698823 1.1173548617 1.360573049 1.5811478604 1.7652275721 
1.9012522905 1.9806798938 1.9985224635 1.9536595164 1.8489083695 1.690847217 1.4894020313 1.2572232283 1.0088912429 
0.76000090248 0.52618209828 0.32211825451 0.16062423439 0.051841588421 0.0026016822241 0.015996698379 0.091185452595 0.22344621866 
0.40447324483 0.62289834097 0.86500478157 1.1155886929 1.3589138304 1.5796997882 1.7640815827 1.90048035 1.980330479 
1.9986175169 1.9541930688 1.8498469147 1.6921318161 1.4909520135 1.2589412574 1.0106694296 0.76172757968 0.52774883357 
0.32342665957 0.16159214361 0.052408218728 0.0027314502038 0.015681454822 0.090444994262 0.22232704508 0.4030456382 0.62125195257 
0.86324300179 1.1138221585 1.3572534768 1.5782498827 1.762933177 1.899705562 1.979977964 1.9987094123 1.9547236038 
1.8507827725 1.6934142264 1.4925004432 1.2606584677 1.0124475826 0.76345501037 0.52931706224 0.32473720413 0.16256270407 
0.052977845558 0.0028643717964 0.015369323927 0.089707412171 0.22121033069 0.4016199193 0.61960676186 0.86148165448 1.1120552642 
1.3555919934 1.5767981487 1.7617823587 1.8989279289 1.9796223502 1.9987981496 1.9552511197 1.8517159399 1.694694444 
1.4940473155 1.2623748537 1 0.75137900964 0.5183709957 0.3156084662 0.155824564 0.049053447106 0.0020001605336 
0.017619570855 0.094930805599 0.22907885038 0.41163943555 0.63114806606 0.87381997229 1.1244157702 1.3671984688 1.5869217265 
1.7697872955 1.9043115281 1.9820465309 1.9981106775 1.9514951668 1.8451273737 1.6856870152 1.4831866755 1.2503430321 
1.0017782711 0.7531018376 0.51993018989 0.31690611186 0.15677917119 0.049605068113 0.0021141544926 0.017288779139 0.094176001367 
0.22794743405 0.41020245816 0.62949576735 0.87205611382 1.1226511193 1.3655438425 1.5854810326 1.768651007 1.9035510022 
1.9817095272 1.9982183593 1.9520407718 1.8460766389 1.6869803284 1.4847428187 1.2520642822 1.0035565365 0.75482544632 
0.52149090218 0.31820591764 0.15773644485 0.050159694506 0.0022313040165 0.016961095002 0.093424061577 0.22681845915 0.40876734586 
0.62784464026 0.87029265993 1.1208860805 1.3638880603 1.5840384872 1.7675122879 1.902787619 1.981369419 1.9983228844 
1.9525833662 1.8470232286 1.6882714691 1.486297429 1.2537847353 1.0053347907 0.75654983034 0.52305312764 0.31950787942 
0.15869638197 0.050717324533 0.0023516087351 0.016636519481 0.092674988608 0.22569192925 0.40733410318 0.62619469003 0.86852961621 
1.1191206595 1.3622311274 1.582594095 1.7663711418 1.9020213809 1.9810262076 1.9984242526 1.9531229483 1.8479671398 
1.6895604333 1.4878505015 1.2555043858 1.007113028 0.75827498421 0.52461686132 0.32081199308 0.1596589795 0.051277956429 
0.0024750682677 0.016315053601 0.091928784827 0.2245678479 0.40590273466 0.62454592186 0.86676698823 1.1173548617 1.360573049 
1.5811478604 1.7652275721 1.9012522905 1.9806798938 1.9985224635 1.9536595164 1.8489083695 1.690847217 1.4894020313 
1.2572232283 1.0088912429 0.76000090248 0.52618209828 0.32211825451 0.16062423439 0.051841588421 0.0026016822241 0.015996698379 
0.091185452595 0.22344621866 0.40447324483 0.62289834097 0.86500478157 1.1155886929 1.3589138304 1.5796997882 1.7640815827 
1.90048035 1.980330479 1.9986175169 1.9541930688 1.8498469147 1.6921318161 1.4909520135 1.2589412574 1.0106694296 
0.76172757968 0.52774883357 0.32342665957 0.16159214361 0.052408218728 0.0027314502038 0.015681454822 0.090444994262 0.22232704508 
0.4030456382 0.62125195257 0.86324300179 1.1138221585 1.3572534768 1.5782498827 1.762933177 1.899705562 1.979977964 
1.9987094123 1.9547236038 1.8507827725 1.6934142264 1.4925004432 1.2606584677 1.0124475826 0.76345501037 0.52931706224 
0.32473720413 0.16256270407 0.052977845558 0.0028643717964 0.015369323927 0.089707412171 0.22121033069 0.4016199193 0.61960676186 